                               Psi4 1.2a1.dev547

  ==> Input File <==

--------------------------------------------------------------------------

# PYTHONPATH must include directory above plugin directory.
#     Define either externally or here, then import plugin.
sys.path.insert(0, './..')
import fvno

molecule {
O
H 1 R
H 1 R 2 A

R = .9
A = 104.5
}

set {
  basis sto-3g
}

set fvno {
  print 1
}

energy('fvno')

fvno.exampleFN()
--------------------------------------------------------------------------

    Molecular point group: c2v

    Geometry (in Angstrom), charge = 0, multiplicity = 1:

       Center              X                  Y                   Z               Mass
    ------------   -----------------  -----------------  -----------------  -----------------
           O          0.000000000000     0.000000000000    -0.061664597379    15.994914619560
           H          0.000000000000    -0.711620616369     0.489330954652     1.007825032070
           H          0.000000000000     0.711620616369     0.489330954652     1.007825032070

  Charge       = 0
  Multiplicity = 1
  Basis Set: STO-3G
    Blend: STO-3G

    Orbital Energies (a.u.)
    -----------------------

    Doubly Occupied:

       1A1   -20.236192     2A1    -1.300480     1B2    -0.649309
       3A1    -0.460194     1B1    -0.396298

  @RHF Final Energy:   -74.94502101053811

   => Energetics <=

    Nuclear Repulsion Energy =              9.7794061444134073
    One-Electron Energy =                -123.3639077692178603
    Two-Electron Energy =                  38.6394806142663398
    Total Energy =                        -74.9450210105381132
*** Psi4 exiting successfully. Buy a developer a beer!
